# vtk DataFile Version 3.0
foo cube
ASCII
DATASET STRUCTURED_POINTS
DIMENSIONS 3 3 1
ORIGIN 0 0 0
SPACING 1 1 1

POINT_DATA 9

SCALARS volume_scalars double 1
LOOKUP_TABLE default
0.0 1.0 2.0
3.0 4.0 5.0
6.0 7.0 8.0

SCALARS other double 1
LOOKUP_TABLE default
8.0 7.0 6.0
5.0 4.0 3.0
2.0 1.0 0.0
