# vtk DataFile Version 3.0
foo cube
ASCII
DATASET UNSTRUCTURED_GRID
POINTS 9 float
0 0 0
1 0 0
2 0 0
0 1 0
1 1 0
2 1 0
0 2 0
1 2 0
2 2 0

# è importante che queste celle siano scritte in ordine consistente
# se è un quadrato ad esempio parti da un vertice e scorri in senso antiorario
CELLS 4 20
4 0 1 4 3
4 1 2 5 4
4 3 4 7 6
4 4 5 8 7

# 9 corrisponde a dei VTK_QUAD
CELL_TYPES 4
9 9 9 9

# se ad ogni punto associ uno scalare (puoi fare anche più oggetti SCALARS) paraview interpola linearmente e viene benissimo
POINT_DATA 9
SCALARS scalars float 1
LOOKUP_TABLE default
0.0 1.0 2.0 3.0 4.0 5.0 6.0 7.0 8.0
